
#(C) 2025 by FIZ Karlsruhe - Leibniz Institute for Information Infrastructure.  All rights reserved.
data_35953-ICSD
_database_code_ICSD 35953
_audit_creation_date 2022-02-01
_chemical_name_common 'Lithium niobate'
_chemical_formula_structural 'Li Nb O3'
_chemical_formula_sum 'Li1 Nb1 O3'
_chemical_name_structure_type LiNbO3
_exptl_crystal_density_diffrn 4.65
_citation_title

;
Study of materials structure physics of isomorphic LiNbO$_3$ and LiTaO$_3$
ferroelectrics by synchrotron radiation X-ray diffraction
;
loop_
_citation_id
_citation_journal_full
_citation_year
_citation_journal_volume
_citation_page_first
_citation_page_last
_citation_journal_id_ASTM
primary 'Japanese Journal of Applied Physics' 2018 57 1 5 JJAPB6
loop_
_citation_author_citation_id
_citation_author_name
primary 'Zhang, Zhi-Gang'
primary 'Abe, Tomohiro'
primary 'Moriyoshi, Chikako'
primary 'Tanaka, Hiroshi'
primary 'Kuroiwa, Yoshihiro'
_cell_length_a 5.13761(1)
_cell_length_b 5.13761(1)
_cell_length_c 13.84970(4)
_cell_angle_alpha 90.
_cell_angle_beta 90.
_cell_angle_gamma 120.
_cell_volume 316.59
_cell_formula_units_Z 6
_space_group_name_H-M_alt 'R 3 c'
_space_group_IT_number 161
loop_
_space_group_symop_id
_space_group_symop_operation_xyz
1 '-x+y, y, z+1/2'
2 'x, x-y, z+1/2'
3 '-y, -x, z+1/2'
4 '-x+y, -x, z'
5 '-y, x-y, z'
6 'x, y, z'
7 '-x+y+2/3, y+1/3, z+5/6'
8 'x+2/3, x-y+1/3, z+5/6'
9 '-y+2/3, -x+1/3, z+5/6'
10 '-x+y+2/3, -x+1/3, z+1/3'
11 '-y+2/3, x-y+1/3, z+1/3'
12 'x+2/3, y+1/3, z+1/3'
13 '-x+y+1/3, y+2/3, z+1/6'
14 'x+1/3, x-y+2/3, z+1/6'
15 '-y+1/3, -x+2/3, z+1/6'
16 '-x+y+1/3, -x+2/3, z+2/3'
17 '-y+1/3, x-y+2/3, z+2/3'
18 'x+1/3, y+2/3, z+2/3'
loop_
_atom_type_symbol
_atom_type_oxidation_number
Li1+ 1
Nb5+ 5
O2- -2
loop_
_atom_site_label
_atom_site_type_symbol
_atom_site_symmetry_multiplicity
_atom_site_Wyckoff_symbol
_atom_site_fract_x
_atom_site_fract_y
_atom_site_fract_z
_atom_site_U_iso_or_equiv
_atom_site_occupancy
Li1 Li1+ 6 a 0 0 0.2810(3) 0.00946(61) 1.
Nb1 Nb5+ 6 a 0 0 0 . 1.
O1 O2- 18 b 0.3805(3) 0.3753(3) 0.2295(1) . 1.
loop_
_atom_site_aniso_label
_atom_site_aniso_type_symbol
_atom_site_aniso_U_11
_atom_site_aniso_U_22
_atom_site_aniso_U_33
_atom_site_aniso_U_12
_atom_site_aniso_U_13
_atom_site_aniso_U_23
Nb1 Nb5+ 0.00172(3) 0.00172(3) 0.0013(1) 0.000860(15) 0 0
O1 O2- 0.00296(38) 0.0036(13) 0.0046(13) 0.0021(8) -0.00049(97) 0.00024(92)
#End of TTdata_35953-ICSD